Program Version,EnergyPlus, Version 9.3.0-baff08990c, YMD=2020.09.22 16:54
1,5,Environment Title[],Latitude[deg],Longitude[deg],Time Zone[],Elevation[m]
2,8,Day of Simulation[],Month[],Day of Month[],DST Indicator[1=yes 0=no],Hour[],StartMinute[],EndMinute[],DayType
3,5,Cumulative Day of Simulation[],Month[],Day of Month[],DST Indicator[1=yes 0=no],DayType  ! When Daily Report Variables Requested
4,2,Cumulative Days of Simulation[],Month[]  ! When Monthly Report Variables Requested
5,1,Cumulative Days of Simulation[] ! When Run Period Report Variables Requested
6,1,Calendar Year of Simulation[] ! When Annual Report Variables Requested
7,1,Environment,Site Outdoor Air Drybulb Temperature [C] !Hourly
270,1,PLENUM-1,Zone Mean Air Temperature [C] !TimeStep
271,1,PLENUM-1,Zone Mean Air Dewpoint Temperature [C] !Hourly
272,1,SPACE1-1,Zone Mean Air Temperature [C] !TimeStep
273,1,SPACE1-1,Zone Mean Air Dewpoint Temperature [C] !Hourly
274,1,SPACE2-1,Zone Mean Air Temperature [C] !TimeStep
275,1,SPACE2-1,Zone Mean Air Dewpoint Temperature [C] !Hourly
276,1,SPACE3-1,Zone Mean Air Temperature [C] !TimeStep
277,1,SPACE3-1,Zone Mean Air Dewpoint Temperature [C] !Hourly
278,1,SPACE4-1,Zone Mean Air Temperature [C] !TimeStep
279,1,SPACE4-1,Zone Mean Air Dewpoint Temperature [C] !Hourly
280,1,SPACE5-1,Zone Mean Air Temperature [C] !TimeStep
281,1,SPACE5-1,Zone Mean Air Dewpoint Temperature [C] !Hourly
392,1,PLENUM-1,Zone Air System Sensible Heating Rate [W] !Hourly
393,1,PLENUM-1,Zone Air System Sensible Cooling Rate [W] !Hourly
394,1,PLENUM-1,Zone Air Temperature [C] !TimeStep
433,1,SPACE1-1,Zone Air System Sensible Heating Rate [W] !Hourly
434,1,SPACE1-1,Zone Air System Sensible Cooling Rate [W] !Hourly
435,1,SPACE1-1,Zone Air Temperature [C] !TimeStep
474,1,SPACE2-1,Zone Air System Sensible Heating Rate [W] !Hourly
475,1,SPACE2-1,Zone Air System Sensible Cooling Rate [W] !Hourly
476,1,SPACE2-1,Zone Air Temperature [C] !TimeStep
515,1,SPACE3-1,Zone Air System Sensible Heating Rate [W] !Hourly
516,1,SPACE3-1,Zone Air System Sensible Cooling Rate [W] !Hourly
517,1,SPACE3-1,Zone Air Temperature [C] !TimeStep
556,1,SPACE4-1,Zone Air System Sensible Heating Rate [W] !Hourly
557,1,SPACE4-1,Zone Air System Sensible Cooling Rate [W] !Hourly
558,1,SPACE4-1,Zone Air Temperature [C] !TimeStep
597,1,SPACE5-1,Zone Air System Sensible Heating Rate [W] !Hourly
598,1,SPACE5-1,Zone Air System Sensible Cooling Rate [W] !Hourly
599,1,SPACE5-1,Zone Air Temperature [C] !TimeStep
600,1,HOT WATER LOOP,Plant Supply Side Cooling Demand Rate [W] !Hourly
601,1,HOT WATER LOOP,Plant Supply Side Heating Demand Rate [W] !Hourly
602,1,CHILLED WATER LOOP,Plant Supply Side Cooling Demand Rate [W] !Hourly
603,1,CHILLED WATER LOOP,Plant Supply Side Heating Demand Rate [W] !Hourly
813,1,SPACE1-1 ZONE COIL,Heating Coil Heating Rate [W] !Hourly
816,1,SPACE2-1 ZONE COIL,Heating Coil Heating Rate [W] !Hourly
819,1,SPACE3-1 ZONE COIL,Heating Coil Heating Rate [W] !Hourly
822,1,SPACE4-1 ZONE COIL,Heating Coil Heating Rate [W] !Hourly
825,1,SPACE5-1 ZONE COIL,Heating Coil Heating Rate [W] !Hourly
828,1,OA HEATING COIL 1,Heating Coil Heating Rate [W] !Hourly
831,1,MAIN HEATING COIL 1,Heating Coil Heating Rate [W] !Hourly
882,1,OA COOLING COIL 1,Cooling Coil Total Cooling Rate [W] !Hourly
883,1,OA COOLING COIL 1,Cooling Coil Sensible Cooling Rate [W] !Hourly
886,1,MAIN COOLING COIL 1,Cooling Coil Total Cooling Rate [W] !Hourly
887,1,MAIN COOLING COIL 1,Cooling Coil Sensible Cooling Rate [W] !Hourly
925,1,CENTRAL BOILER,Boiler Heating Rate [W] !Hourly
951,1,CENTRAL BOILER,Boiler Gas Rate [W] !Hourly
1038,1,CENTRAL CHILLER,Chiller Electric Power [W] !Hourly
1064,1,CENTRAL CHILLER,Chiller Evaporator Cooling Rate [W] !Hourly
1078,1,CENTRAL CHILLER,Chiller Evaporator Inlet Temperature [C] !Hourly
1079,1,CENTRAL CHILLER,Chiller Evaporator Outlet Temperature [C] !Hourly
1080,1,CENTRAL CHILLER,Chiller Evaporator Mass Flow Rate [kg/s] !Hourly
1081,1,CENTRAL CHILLER,Chiller Condenser Heat Transfer Rate [W] !Hourly
1132,1,HW CIRC PUMP,Pump Outlet Temperature [C] !Hourly
1133,1,HW CIRC PUMP,Pump Mass Flow Rate [kg/s] !Hourly
1135,1,CW CIRC PUMP,Pump Outlet Temperature [C] !Hourly
1136,1,CW CIRC PUMP,Pump Mass Flow Rate [kg/s] !Hourly
1137,1,MIXED AIR NODE 1,System Node Temperature [C] !Hourly
1138,1,MIXED AIR NODE 1,System Node Humidity Ratio [kgWater/kgDryAir] !Hourly
1139,1,MIXED AIR NODE 1,System Node Dewpoint Temperature [C] !Hourly
1140,1,VAV SYS 1 OUTLET NODE,System Node Temperature [C] !Hourly
1141,1,VAV SYS 1 OUTLET NODE,System Node Mass Flow Rate [kg/s] !Hourly
1142,1,VAV SYS 1 OUTLET NODE,System Node Humidity Ratio [kgWater/kgDryAir] !Hourly
1143,1,VAV SYS 1 OUTLET NODE,System Node Setpoint Temperature [C] !Hourly
1144,1,OA HEATING COIL 1 WATER INLET NODE,System Node Temperature [C] !Hourly
1145,1,OA HEATING COIL 1 WATER INLET NODE,System Node Mass Flow Rate [kg/s] !Hourly
1146,1,MAIN HEATING COIL 1 WATER INLET NODE,System Node Mass Flow Rate [kg/s] !Hourly
1147,1,MAIN COOLING COIL 1 WATER INLET NODE,System Node Mass Flow Rate [kg/s] !Hourly
1148,1,OA COOLING COIL 1 WATER INLET NODE,System Node Temperature [C] !Hourly
1149,1,OA COOLING COIL 1 WATER INLET NODE,System Node Mass Flow Rate [kg/s] !Hourly
1150,1,OA MIXING BOX 1 INLET NODE,System Node Temperature [C] !Hourly
1151,1,OA MIXING BOX 1 INLET NODE,System Node Mass Flow Rate [kg/s] !Hourly
1152,1,OA MIXING BOX 1 INLET NODE,System Node Humidity Ratio [kgWater/kgDryAir] !Hourly
1153,1,OA MIXING BOX 1 INLET NODE,System Node Setpoint Temperature [C] !Hourly
1154,1,OA HEATING COIL 1 AIR OUTLET NODE,System Node Temperature [C] !Hourly
1155,1,OA HEATING COIL 1 AIR OUTLET NODE,System Node Mass Flow Rate [kg/s] !Hourly
1156,1,OA HEATING COIL 1 AIR OUTLET NODE,System Node Humidity Ratio [kgWater/kgDryAir] !Hourly
1157,1,OA HEATING COIL 1 AIR OUTLET NODE,System Node Setpoint Temperature [C] !Hourly
End of Data Dictionary
1,ONE DAY,  41.98, -87.92,  -6.00, 201.00
2,1, 1, 1, 0, 1, 0.00, 1.00,Sunday
270,15.496160258264636
272,17.215435912726436
274,17.228115171807553
276,17.22471560483171
278,17.209682138211833
280,18.931701385743677
394,15.496160258264636
435,17.215435912726436
476,17.228115171807553
517,17.22471560483171
558,17.209682138211833
599,18.931701385743677
2,1, 1, 1, 0, 1, 1.00, 2.00,Sunday
270,15.494538220524755
272,17.213003731430147
274,17.225862486906477
276,17.22236611565822
278,17.207423780054154
280,18.93080323741797
394,15.494538220524755
435,17.213003731430147
476,17.225862486906477
517,17.22236611565822
558,17.207423780054154
599,18.93080323741797
2,1, 1, 1, 0, 1, 2.00, 3.00,Sunday
270,15.49293765112726
272,17.209675971053409
274,17.222895658285784
276,17.21917963081598
278,17.204449105299255
280,18.929736000060236
394,15.49293765112726
435,17.209675971053409
476,17.222895658285784
517,17.21917963081598
558,17.204449105299255
599,18.929736000060236
2,1, 1, 1, 0, 1, 3.00, 4.00,Sunday
270,15.491166345551302
272,17.20545453382288
274,17.219234357796645
276,17.215157230886704
278,17.20077999173633
280,18.92850874192635
394,15.491166345551302
435,17.20545453382288
476,17.219234357796645
517,17.215157230886704
558,17.20077999173633
599,18.92850874192635
2,1, 1, 1, 0, 1, 4.00, 5.00,Sunday
270,15.489436783744358
272,17.20067093577384
274,17.21515841072419
276,17.210605488555648
278,17.19669736787131
280,18.927173761557204
394,15.489436783744358
435,17.20067093577384
476,17.21515841072419
517,17.210605488555648
558,17.19669736787131
599,18.927173761557204
2,1, 1, 1, 0, 1, 5.00, 6.00,Sunday
270,15.487504005212081
272,17.195275940595054
274,17.210629932597418
276,17.20547858138661
278,17.192164314296425
280,18.925725916596457
394,15.487504005212081
435,17.195275940595054
476,17.210629932597418
517,17.20547858138661
558,17.192164314296425
599,18.925725916596457
2,1, 1, 1, 0, 1, 6.00, 7.00,Sunday
270,15.485410256994513
272,17.189371776065668
274,17.205730531015325
276,17.199870846110295
278,17.187262672995425
280,18.924180508194405
394,15.485410256994513
435,17.189371776065668
476,17.205730531015325
517,17.199870846110295
558,17.187262672995425
599,18.924180508194405
2,1, 1, 1, 0, 1, 7.00, 8.00,Sunday
270,15.483224064756513
272,17.18307376790058
274,17.20055084534147
276,17.193889158242098
278,17.1820829248867
280,18.92255455454962
394,15.483224064756513
435,17.18307376790058
476,17.20055084534147
517,17.193889158242098
558,17.1820829248867
599,18.92255455454962
2,1, 1, 1, 0, 1, 8.00, 9.00,Sunday
270,15.480978068997123
272,17.176462491751008
274,17.195152613768469
276,17.187608569285659
278,17.17668658709698
280,18.92086054603772
394,15.480978068997123
435,17.176462491751008
476,17.195152613768469
517,17.187608569285659
558,17.17668658709698
599,18.92086054603772
2,1, 1, 1, 0, 1, 9.00,10.00,Sunday
270,15.478676567049265
272,17.169588427592705
274,17.189573070385948
276,17.181076415022845
278,17.17111072416474
280,18.919107150898886
394,15.478676567049265
435,17.169588427592705
476,17.189573070385948
517,17.181076415022845
558,17.17111072416474
599,18.919107150898886
2,1, 1, 1, 0, 1,10.00,11.00,Sunday
270,15.476320400092224
272,17.162485531210114
274,17.183836142980089
276,17.174324736717744
278,17.165379127853766
280,18.9173008233451
394,15.476320400092224
435,17.162485531210114
476,17.183836142980089
517,17.174324736717744
558,17.165379127853766
599,18.9173008233451
2,1, 1, 1, 0, 1,11.00,12.00,Sunday
270,15.473908018390095
272,17.1551797863527
274,17.1779594490237
276,17.167378140431848
278,17.15950928510945
280,18.915446722575788
394,15.473908018390095
435,17.1551797863527
476,17.1779594490237
517,17.167378140431848
558,17.15950928510945
599,18.915446722575788
2,1, 1, 1, 0, 1,12.00,13.00,Sunday
270,15.471443377247363
272,17.147692694194374
274,17.17195715068667
276,17.160257020595073
278,17.153515221172868
280,18.913549122444715
394,15.471443377247363
435,17.147692694194374
476,17.17195715068667
517,17.160257020595073
558,17.153515221172868
599,18.913549122444715
2,1, 1, 1, 0, 1,13.00,14.00,Sunday
270,15.468927413916806
272,17.1400423652537
274,17.16584090932717
276,17.152978578080324
278,17.147408463750798
280,18.911611575061646
394,15.468927413916806
435,17.1400423652537
476,17.16584090932717
517,17.152978578080324
558,17.147408463750798
599,18.911611575061646
2,1, 1, 1, 0, 1,14.00,15.00,Sunday
270,15.466364772154173
272,17.13224395770791
274,17.159620259059083
276,17.145557233376218
278,17.141198421714859
280,18.909637034621587
394,15.466364772154173
435,17.13224395770791
476,17.159620259059083
517,17.145557233376218
558,17.141198421714859
599,18.909637034621587
2,1, 1, 1, 0, 1,15.00,16.00,Sunday
270,15.463755763832549
272,17.124310061459384
274,17.15330294299723
276,17.13800498502235
278,17.134892729082229
280,18.907627938331485
394,15.463755763832549
435,17.124310061459384
476,17.15330294299723
517,17.13800498502235
558,17.134892729082229
599,18.907627938331485
2,1, 1, 1, 0, 1,16.00,17.00,Sunday
270,15.4611043096765
272,17.116251115253595
274,17.146895218844379
276,17.13033179810172
278,17.128497547782705
280,18.905586301069549
394,15.4611043096765
435,17.116251115253595
476,17.146895218844379
517,17.13033179810172
558,17.128497547782705
599,18.905586301069549
2,1, 1, 1, 0, 1,17.00,18.00,Sunday
270,15.45840992134971
272,17.108075794190314
274,17.140402166854697
276,17.122545964355419
278,17.12201787783699
280,18.903513773079405
394,15.45840992134971
435,17.108075794190314
476,17.140402166854697
517,17.122545964355419
558,17.12201787783699
599,18.903513773079405
2,1, 1, 1, 0, 1,18.00,19.00,Sunday
270,15.455675969206846
272,17.09979134171711
274,17.133827913008344
276,17.114654412655978
278,17.115457775254524
280,18.90141171248338
394,15.455675969206846
435,17.09979134171711
476,17.133827913008344
517,17.114654412655978
558,17.115457775254524
599,18.90141171248338
2,1, 1, 1, 0, 1,19.00,20.00,Sunday
270,15.452901327059499
272,17.091403831002727
274,17.127175833818567
276,17.106662953517068
278,17.10882055876988
280,18.899281221794085
394,15.452901327059499
435,17.091403831002727
476,17.127175833818567
517,17.106662953517068
558,17.10882055876988
599,18.899281221794085
2,1, 1, 1, 0, 1,20.00,21.00,Sunday
270,15.450088941112055
272,17.082918377147537
274,17.120448684670707
276,17.098576479442554
278,17.10210893300054
280,18.897123203112647
394,15.450088941112055
435,17.082918377147537
476,17.120448684670707
517,17.098576479442554
558,17.10210893300054
599,18.897123203112647
2,1, 1, 1, 0, 1,21.00,22.00,Sunday
270,15.44723709877159
272,17.07433930147169
274,17.11364873102651
276,17.090399119715543
278,17.095325122048693
280,18.894938378668284
394,15.44723709877159
435,17.07433930147169
476,17.11364873102651
517,17.090399119715543
558,17.095325122048693
599,18.894938378668284
2,1, 1, 1, 0, 1,22.00,23.00,Sunday
270,15.444348420823444
272,17.065670269950368
274,17.106777820654466
276,17.08213437231399
278,17.088470936647626
280,18.892727334156527
394,15.444348420823444
435,17.065670269950368
476,17.106777820654466
517,17.08213437231399
558,17.088470936647626
599,18.892727334156527
2,1, 1, 1, 0, 1,23.00,24.00,Sunday
270,15.441420645608695
272,17.05691440006814
274,17.099837474000457
276,17.073785205128883
278,17.081547867401598
280,18.89049052766087
394,15.441420645608695
435,17.05691440006814
476,17.099837474000457
517,17.073785205128883
558,17.081547867401598
599,18.89049052766087
2,1, 1, 1, 0, 1,24.00,25.00,Sunday
270,15.438456171496954
272,17.048074354771459
274,17.09282892372728
276,17.06535414631468
278,17.074557119276144
280,18.888228325313589
394,15.438456171496954
435,17.048074354771459
476,17.09282892372728
517,17.06535414631468
558,17.074557119276144
599,18.888228325313589
2,1, 1, 1, 0, 1,25.00,26.00,Sunday
270,15.435452214909388
272,17.039152412812883
274,17.085753181181685
276,17.056843351190989
278,17.067499681472336
280,18.88594100162364
394,15.435452214909388
435,17.039152412812883
476,17.085753181181685
517,17.056843351190989
558,17.067499681472336
599,18.88594100162364
2,1, 1, 1, 0, 1,26.00,27.00,Sunday
270,15.432411046975247
272,17.030150533984405
274,17.078611055064543
276,17.04825466559777
278,17.06037634100654
280,18.883628770385884
394,15.432411046975247
435,17.030150533984405
476,17.078611055064543
517,17.04825466559777
558,17.06037634100654
599,18.883628770385884
2,1, 1, 1, 0, 1,27.00,28.00,Sunday
270,15.42932937824778
272,17.021070405215
274,17.071403203465679
276,17.03958966982582
278,17.05318773871702
280,18.881291778393604
394,15.42932937824778
435,17.021070405215
476,17.071403203465679
517,17.03958966982582
558,17.05318773871702
599,18.881291778393604
2,1, 1, 1, 0, 1,28.00,29.00,Sunday
270,15.426209437728494
272,17.01191348700118
274,17.064130138488069
276,17.030849724191254
278,17.045934368642415
280,18.87893013364792
394,15.426209437728494
435,17.01191348700118
476,17.064130138488069
517,17.030849724191254
558,17.045934368642415
599,18.87893013364792
2,1, 1, 1, 0, 1,29.00,30.00,Sunday
270,15.423047439825132
272,17.002681043240039
274,17.056792269803095
276,17.022035997418766
278,17.038616626122079
280,18.876543893789966
394,15.423047439825132
435,17.002681043240039
476,17.056792269803095
517,17.022035997418766
558,17.038616626122079
599,18.876543893789966
2,1, 1, 1, 0, 1,30.00,31.00,Sunday
270,15.419845647291309
272,16.993374175336528
274,17.049389899359775
276,17.013149500496814
278,17.03123479699204
280,18.874133093097777
394,15.419845647291309
435,16.993374175336528
476,17.049389899359775
517,17.013149500496814
558,17.03123479699204
599,18.874133093097777
2,1, 1, 1, 0, 1,31.00,32.00,Sunday
270,15.41659978550701
272,16.98399384099036
274,17.041923260291676
276,17.00419110439939
278,17.023789101621547
280,18.871697726555739
394,15.41659978550701
435,16.98399384099036
476,17.041923260291676
517,17.00419110439939
558,17.023789101621547
599,18.871697726555739
2,1, 1, 1, 0, 1,32.00,33.00,Sunday
270,15.41331221822312
272,16.97454088019567
274,17.034392504197997
276,16.995161566196154
278,17.016279676316466
280,18.869237776721755
394,15.41331221822312
435,16.97454088019567
476,17.034392504197997
517,16.995161566196154
558,17.016279676316466
599,18.869237776721755
2,1, 1, 1, 0, 1,33.00,34.00,Sunday
270,15.409978188585175
272,16.965016026405104
274,17.02679773791155
276,16.98606153934109
278,17.008706615816747
280,18.86675319406509
394,15.409978188585175
435,16.965016026405104
476,17.02679773791155
517,16.98606153934109
558,17.008706615816747
599,18.86675319406509
2,1, 1, 1, 0, 1,34.00,35.00,Sunday
270,15.406600220396534
272,16.955419927176174
274,17.019139004843998
276,16.976891594655308
278,17.001069948319196
280,18.86424392448349
394,15.406600220396534
435,16.955419927176174
476,17.019139004843998
517,16.976891594655308
558,17.001069948319196
599,18.86424392448349
2,1, 1, 1, 0, 1,35.00,36.00,Sunday
270,15.403173082335794
272,16.945753149980186
274,17.011416321289095
276,16.967652225336349
278,16.993369678126294
280,18.86170988633827
394,15.403173082335794
435,16.945753149980186
476,17.011416321289095
517,16.967652225336349
558,16.993369678126294
599,18.86170988633827
2,1, 1, 1, 0, 1,36.00,37.00,Sunday
270,15.39969950950272
272,16.936016199310509
274,17.003629652733264
276,16.958343864553084
278,16.985605755125414
280,18.859150999176916
394,15.39969950950272
435,16.936016199310509
476,17.003629652733264
517,16.958343864553084
558,16.985605755125414
599,18.859150999176916
2,1, 1, 1, 0, 1,37.00,38.00,Sunday
270,15.396173805458515
272,16.926209518659357
274,16.995778950836756
276,16.948966886632765
278,16.977778118747659
280,18.85656715775923
394,15.396173805458515
435,16.926209518659357
476,16.995778950836756
517,16.948966886632765
558,16.977778118747659
599,18.85656715775923
2,1, 1, 1, 0, 1,38.00,39.00,Sunday
270,15.392598960389805
272,16.916333505289506
274,16.987864125253645
276,16.939521622428868
278,16.969886662397458
280,18.85395826237248
394,15.392598960389805
435,16.916333505289506
476,16.987864125253645
517,16.939521622428868
558,16.969886662397458
599,18.85395826237248
2,1, 1, 1, 0, 1,39.00,40.00,Sunday
270,15.388968823835395
272,16.90638850941411
274,16.979885082081674
276,16.930008357683339
278,16.961931279525886
280,18.851324190052077
394,15.388968823835395
435,16.90638850941411
476,16.979885082081674
517,16.930008357683339
558,16.961931279525886
599,18.851324190052077
2,1, 1, 1, 0, 1,40.00,41.00,Sunday
270,15.385286677789681
272,16.896431803019273
274,16.97195221358392
276,16.920481583533129
278,16.95403251270317
280,18.848696219577904
394,15.385286677789681
435,16.896431803019273
476,16.97195221358392
517,16.920481583533129
558,16.95403251270317
599,18.848696219577904
2,1, 1, 1, 0, 1,41.00,42.00,Sunday
270,15.381548394025991
272,16.886475441738769
274,16.96408562043283
276,16.91095290720047
278,16.946212067577354
280,18.84608184747297
394,15.381548394025991
435,16.886475441738769
476,16.96408562043283
517,16.91095290720047
558,16.946212067577354
599,18.84608184747297
2,1, 1, 1, 0, 1,42.00,43.00,Sunday
270,15.377761267843806
272,16.876517335123486
274,16.95627768934801
276,16.901420477355559
278,16.93846135674972
280,18.843480939951069
394,15.377761267843806
435,16.876517335123486
476,16.95627768934801
517,16.901420477355559
558,16.93846135674972
599,18.843480939951069
2,1, 1, 1, 0, 1,43.00,44.00,Sunday
270,15.373921437661677
272,16.866548582899907
274,16.948508369584645
276,16.89187591155933
278,16.93075827963029
280,18.840889336072693
394,15.373921437661677
435,16.866548582899907
476,16.948508369584645
517,16.89187591155933
558,16.93075827963029
599,18.840889336072693
2,1, 1, 1, 0, 1,44.00,45.00,Sunday
270,15.370034544933846
272,16.856559393085026
274,16.940756885082409
276,16.882309919480055
278,16.923080034386677
280,18.838302010364545
394,15.370034544933846
435,16.856559393085026
476,16.940756885082409
517,16.882309919480055
558,16.923080034386677
599,18.838302010364545
2,1, 1, 1, 0, 1,45.00,46.00,Sunday
270,15.366093696153348
272,16.846541636777198
274,16.933006577127718
276,16.872714746470988
278,16.915408395622966
280,18.83571450284609
394,15.366093696153348
435,16.846541636777198
476,16.933006577127718
517,16.872714746470988
558,16.915408395622966
599,18.83571450284609
2,1, 1, 1, 0, 1,46.00,47.00,Sunday
270,15.362102725687697
272,16.836489226677239
274,16.92524527141147
276,16.863084553389489
278,16.907730080807374
280,18.833123269650224
394,15.362102725687697
435,16.836489226677239
476,16.92524527141147
517,16.863084553389489
558,16.907730080807374
599,18.833123269650224
2,1, 1, 1, 0, 1,47.00,48.00,Sunday
270,15.358053253020202
272,16.826397593309005
274,16.917464068969026
276,16.853414930533967
278,16.90003541172137
280,18.830525454992963
394,15.358053253020202
435,16.826397593309005
476,16.917464068969026
517,16.853414930533967
558,16.90003541172137
599,18.830525454992963
2,1, 1, 1, 0, 1,48.00,49.00,Sunday
270,15.353949004772078
272,16.816263254153339
274,16.90965629024828
276,16.843702497038679
278,16.892317140903857
280,18.827918747427306
394,15.353949004772078
435,16.816263254153339
476,16.90965629024828
517,16.843702497038679
558,16.892317140903857
599,18.827918747427306
2,1, 1, 1, 0, 1,49.00,50.00,Sunday
270,15.349781225539914
272,16.80608344136432
274,16.901816733556517
276,16.83394454941459
278,16.88456964019753
280,18.825301174200559
394,15.349781225539914
435,16.80608344136432
476,16.901816733556517
517,16.83394454941459
558,16.88456964019753
599,18.825301174200559
2,1, 1, 1, 0, 1,50.00,51.00,Sunday
270,15.345554113326287
272,16.795855981253099
274,16.893941330678929
276,16.824138950675886
278,16.876788514737947
280,18.822671090845497
394,15.345554113326287
435,16.795855981253099
476,16.893941330678929
517,16.824138950675886
558,16.876788514737947
599,18.822671090845497
2,1, 1, 1, 0, 1,51.00,52.00,Sunday
270,15.341258730590872
272,16.785579120951348
274,16.886026853688244
276,16.814283965353697
278,16.868970287086268
280,18.820027062217038
394,15.341258730590872
435,16.785579120951348
476,16.886026853688244
517,16.814283965353697
558,16.868970287086268
599,18.820027062217038
2,1, 1, 1, 0, 1,52.00,53.00,Sunday
270,15.336899807401565
272,16.77525150711286
274,16.878070787969798
276,16.8043782417688
278,16.861112250977216
280,18.817367897853214
394,15.336899807401565
435,16.77525150711286
476,16.878070787969798
517,16.8043782417688
558,16.861112250977216
599,18.817367897853214
2,1, 1, 1, 0, 1,53.00,54.00,Sunday
270,15.332468224074388
272,16.764872053085346
274,16.870071136970656
276,16.794420684677168
278,16.853212264154278
280,18.81469254663923
394,15.332468224074388
435,16.764872053085346
476,16.870071136970656
517,16.794420684677168
558,16.853212264154278
599,18.81469254663923
2,1, 1, 1, 0, 1,54.00,55.00,Sunday
270,15.327969233686366
272,16.754439946577695
274,16.86202635884962
276,16.784410464536408
278,16.84526867221387
280,18.812000144888985
394,15.327969233686366
435,16.754439946577695
476,16.86202635884962
517,16.784410464536408
558,16.84526867221387
599,18.812000144888985
2,1, 1, 1, 0, 1,55.00,56.00,Sunday
270,15.323393524660319
272,16.74395453570804
274,16.853935219614603
276,16.7743469075178
278,16.837280155290864
280,18.809289915304363
394,15.323393524660319
435,16.74395453570804
476,16.853935219614603
517,16.7743469075178
558,16.837280155290864
599,18.809289915304363
2,1, 1, 1, 0, 1,56.00,57.00,Sunday
270,15.31874684982039
272,16.733415359074799
274,16.845796775779179
276,16.76422952578543
278,16.82924570230152
280,18.80656122604159
394,15.31874684982039
435,16.733415359074799
476,16.845796775779179
517,16.76422952578543
558,16.82924570230152
599,18.80656122604159
2,1, 1, 1, 0, 1,57.00,58.00,Sunday
270,15.314019693330405
272,16.722822045914243
274,16.837610262138619
276,16.754057920600528
278,16.82116449605608
280,18.803813493229439
394,15.314019693330405
435,16.722822045914243
476,16.837610262138619
517,16.754057920600528
558,16.82116449605608
599,18.803813493229439
2,1, 1, 1, 0, 1,58.00,59.00,Sunday
270,15.309218277246569
272,16.71217436262516
274,16.829375105256696
276,16.74383182817345
278,16.813035921005566
280,18.80104624933042
394,15.309218277246569
435,16.71217436262516
476,16.829375105256696
517,16.74383182817345
558,16.813035921005566
599,18.80104624933042
2,1, 1, 1, 0, 1,59.00,60.00,Sunday
270,15.304332871838583
272,16.70147212126713
274,16.821090831729163
276,16.73355103054372
278,16.80485947107151
280,18.79825904742078
394,15.304332871838583
435,16.70147212126713
476,16.821090831729163
517,16.73355103054372
558,16.80485947107151
599,18.79825904742078
2,1, 1, 1, 0, 1, 0.00,60.00,Sunday
7,-7.0375
271,-7.861236811218873
273,-7.876245215483325
275,-7.883911126853831
277,-7.875728991280785
279,-7.884963882635444
281,-7.864204581122503
392,827.7342629811907
393,0.0
433,0.0
434,72.50710157073216
474,0.0
475,65.73986873588635
515,0.0
516,70.35926439670196
556,0.0
557,70.5639278583346
597,0.0
598,222.0216186792276
600,0.0
601,2.7341103920227418
602,0.0
603,0.0
813,0.0
816,0.0
819,0.0
822,0.0
825,0.0
828,0.0
831,8.927094411369021
882,0.0
883,0.0
886,0.0
887,0.0
925,2.722361303528705
951,3.40295162941088
1038,0.0
1064,0.0
1078,7.220000000000011
1079,7.220000000000011
1080,0.0
1081,0.0
1132,67.09284619976188
1133,0.000043603347909203737
1135,7.220000000000011
1136,0.0
1137,15.044762987822072
1138,0.001966121852883197
1139,-7.898054823146234
1140,16.07575398277437
1141,0.37358049212432217
1142,0.001966121852883197
1143,16.0
1144,81.99953560216484
1145,0.0
1146,0.000043603347909203737
1147,0.0
1148,7.220000000000011
1149,0.0
1150,-7.0375
1151,0.006211446184924547
1152,0.0015836023155472042
1153,11.5
1154,-7.0375
1155,0.006211446184924547
1156,0.0015836023155472042
1157,4.5
2,1, 1, 1, 0, 2, 0.00, 1.00,Sunday
270,15.299385919925346
272,16.700141314940568
274,16.81329529724984
276,16.723847208211205
278,16.797172537334576
280,18.79557372110849
394,15.299385919925346
435,16.700141314940568
476,16.81329529724984
517,16.723847208211205
558,16.797172537334576
599,18.79557372110849
2,1, 1, 1, 0, 2, 1.00, 2.00,Sunday
270,15.294467446333432
272,16.700121891180257
274,16.806235599407839
276,16.715029225850839
278,16.79022058215898
280,18.793047653226215
394,15.294467446333432
435,16.700121891180257
476,16.806235599407839
517,16.715029225850839
558,16.79022058215898
599,18.793047653226215
2,1, 1, 1, 0, 2, 2.00, 3.00,Sunday
270,15.289639042549343
272,16.69997749437214
274,16.79987879457488
276,16.707081840078293
278,16.783969012417157
280,18.79067861910204
394,15.289639042549343
435,16.69997749437214
476,16.79987879457488
517,16.707081840078293
558,16.783969012417157
599,18.79067861910204
2,1, 1, 1, 0, 2, 3.00, 4.00,Sunday
270,15.284890735903313
272,16.699937463622143
274,16.794087146339444
276,16.700021108805996
278,16.778279030339875
280,18.78844167729817
394,15.284890735903313
435,16.699937463622143
476,16.794087146339444
517,16.700021108805996
558,16.778279030339875
599,18.78844167729817
2,1, 1, 1, 0, 2, 4.00, 5.00,Sunday
270,15.280208055502657
272,16.70008312132167
274,16.78872589053587
276,16.699895389576935
278,16.77301543605193
280,18.786311100982635
394,15.280208055502657
435,16.70008312132167
476,16.78872589053587
517,16.699895389576935
558,16.77301543605193
599,18.786311100982635
2,1, 1, 1, 0, 2, 5.00, 6.00,Sunday
270,15.275608749505878
272,16.69987919186027
274,16.78369434667966
276,16.700056235012594
278,16.76807754593169
280,18.78426666695315
394,15.275608749505878
435,16.69987919186027
476,16.78369434667966
517,16.700056235012594
558,16.76807754593169
599,18.78426666695315
2,1, 1, 1, 0, 2, 6.00, 7.00,Sunday
270,15.271091727044095
272,16.700129279553094
274,16.778922274459118
276,16.699926130953985
278,16.76339534847585
280,18.782293488697879
394,15.271091727044095
435,16.700129279553094
476,16.778922274459118
517,16.699926130953985
558,16.76339534847585
599,18.782293488697879
2,1, 1, 1, 0, 2, 7.00, 8.00,Sunday
270,15.266727734758466
272,16.70001640192284
274,16.77438842790418
276,16.700019182864336
278,16.75894770597919
280,18.780397763843874
394,15.266727734758466
435,16.70001640192284
476,16.77438842790418
517,16.700019182864336
558,16.75894770597919
599,18.780397763843874
2,1, 1, 1, 0, 2, 8.00, 9.00,Sunday
270,15.262314523554826
272,16.700025238954905
274,16.7700115450797
276,16.70011297922505
278,16.754653961001748
280,18.778545161329107
394,15.262314523554826
435,16.700025238954905
476,16.7700115450797
517,16.70011297922505
558,16.754653961001748
599,18.778545161329107
2,1, 1, 1, 0, 2, 9.00,10.00,Sunday
270,15.257945810702588
272,16.700058260892527
274,16.765787401687008
276,16.700054158485274
278,16.750510044668574
280,18.776744062185896
394,15.257945810702588
435,16.700058260892527
476,16.765787401687008
517,16.700054158485274
558,16.750510044668574
599,18.776744062185896
2,1, 1, 1, 0, 2,10.00,11.00,Sunday
270,15.253480219053566
272,16.699947946061369
274,16.761657940865488
276,16.700039841622936
278,16.746458439504666
280,18.774967350656909
394,15.253480219053566
435,16.699947946061369
476,16.761657940865488
517,16.700039841622936
558,16.746458439504666
599,18.774967350656909
2,1, 1, 1, 0, 2,11.00,12.00,Sunday
270,15.249043203714038
272,16.699940414887175
274,16.757635807116608
276,16.699981005141085
278,16.7425118903429
280,18.773229023037197
394,15.249043203714038
435,16.699940414887175
476,16.757635807116608
517,16.699981005141085
558,16.7425118903429
599,18.773229023037197
2,1, 1, 1, 0, 2,12.00,13.00,Sunday
270,15.244500906278033
272,16.699889822500439
274,16.75367423284143
276,16.70002873473758
278,16.738624107933175
280,18.77150491707543
394,15.244500906278033
435,16.699889822500439
476,16.75367423284143
517,16.70002873473758
558,16.738624107933175
599,18.77150491707543
2,1, 1, 1, 0, 2,13.00,14.00,Sunday
270,15.239981690804627
272,16.699986276576789
274,16.749793127892916
276,16.7000533491358
278,16.734815049260157
280,18.76981115825261
394,15.239981690804627
435,16.699986276576789
476,16.749793127892916
517,16.7000533491358
558,16.734815049260157
599,18.76981115825261
2,1, 1, 1, 0, 2,14.00,15.00,Sunday
270,15.235350440382426
272,16.700046770507034
274,16.745951154827453
276,16.69992676333073
278,16.73104379069807
280,18.768124721190558